# vtk DataFile Version 2.0
10bartruss
ASCII
DATASET UNSTRUCTURED_GRID
POINTS 6            FLOAT
7.2000E+02       3.6000E+02       0.0000E+00      
7.2000E+02       0.0000E+00       0.0000E+00      
3.6000E+02       3.6000E+02       0.0000E+00      
3.6000E+02       0.0000E+00       0.0000E+00      
0.0000E+00       3.6000E+02       0.0000E+00      
0.0000E+00       0.0000E+00       0.0000E+00      
CELLS 10               30              
2                4                2               
2                2                0               
2                5                3               
2                3                1               
2                3                2               
2                0                1               
2                4                3               
2                2                5               
2                2                1               
2                3                0               
CELL_TYPES               10
3               
3               
3               
3               
3               
3               
3               
3               
3               
3               
POINT_DATA                6
VECTORS rotation float
0.0000E+00       0.0000E+00       0.0000E+00      
0.0000E+00       0.0000E+00       0.0000E+00      
0.0000E+00       0.0000E+00       0.0000E+00      
0.0000E+00       -1.0000E-14      0.0000E+00      
0.0000E+00       0.0000E+00       0.0000E+00      
0.0000E+00       0.0000E+00       0.0000E+00      
VECTORS displacement float
7.0331E+01       -2.7377E+02      0.0000E+00      
-7.3669E+01      -2.8988E+02      0.0000E+00      
5.4218E+01       -1.0575E+02      0.0000E+00      
-5.3782E+01      -1.0408E+02      0.0000E+00      
2.0000E-14       -4.9395E-15      0.0000E+00      
-2.0000E-14      -5.0605E-15      0.0000E+00      
