# vtk DataFile Version 2.0
sample file
ASCII
DATASET POLYDATA
POINTS 2      FLOAT
0.000000E+00     0.000000E+00     0.000000E+00    
0.000000E+00     1.000000E+00     0.000000E+00    
LINES 1      3     
2 0      1     
POINT_DATA 2     
VECTORS velocity float
1.000000E+00     0.000000E+00     0.000000E+00    
2.000000E+00     0.000000E+00     0.000000E+00    
VECTORS displacement float
0.000000E+00     0.000000E+00     0.000000E+00    
0.000000E+00     -1.000000E+00    0.000000E+00    
